Program Version,EnergyPlus, Version 8.9.0-40101eaafd, YMD=2018.07.30 14:09
1,5,Environment Title[],Latitude[deg],Longitude[deg],Time Zone[],Elevation[m]
2,8,Day of Simulation[],Month[],Day of Month[],DST Indicator[1=yes 0=no],Hour[],StartMinute[],EndMinute[],DayType
3,5,Cumulative Day of Simulation[],Month[],Day of Month[],DST Indicator[1=yes 0=no],DayType  ! When Daily Meters Requested
4,2,Cumulative Days of Simulation[],Month[]  ! When Monthly Meters Requested
5,1,Cumulative Days of Simulation[] ! When Run Period Meters Requested
6,1,Calendar Year of Simulation[] ! When Annual Meters Requested
35,1,Electricity:Facility [J] !TimeStep
962,1,Gas:Facility [J] !TimeStep
964,7,Gas:Facility [J] !Daily [Value,Min,Hour,Minute,Max,Hour,Minute]
37,7,Electricity:Facility [J] !Daily [Value,Min,Hour,Minute,Max,Hour,Minute]
End of Data Dictionary
1,RUN PERIOD 1,  39.17, -76.68,  -5.00,  45.00
2,1, 1, 1, 0, 1, 0.00, 5.00,Sunday
35,353717710.19901129
962,526940541.75759419
2,1, 1, 1, 0, 1, 5.00,10.00,Sunday
35,355297531.596241
962,593764951.716386
2,1, 1, 1, 0, 1,10.00,15.00,Sunday
35,360901346.1914196
962,599809574.1514114
2,1, 1, 1, 0, 1,15.00,20.00,Sunday
35,361744150.04001346
962,599228380.3587
2,1, 1, 1, 0, 1,20.00,25.00,Sunday
35,362695415.9515262
962,586868651.7163482
2,1, 1, 1, 0, 1,25.00,30.00,Sunday
35,364019567.4436603
962,583391332.049483
2,1, 1, 1, 0, 1,30.00,35.00,Sunday
35,366358836.7413384
962,583067959.4002409
2,1, 1, 1, 0, 1,35.00,40.00,Sunday
35,368320523.78685036
962,582452427.7587686
2,1, 1, 1, 0, 1,40.00,45.00,Sunday
35,370197719.61814376
962,581988411.155274
2,1, 1, 1, 0, 1,45.00,50.00,Sunday
35,371979132.473822
962,581050514.6168223
2,1, 1, 1, 0, 1,50.00,55.00,Sunday
35,373744077.7761903
962,580374759.0616654
2,1, 1, 1, 0, 1,55.00,60.00,Sunday
35,374758633.4569659
962,576882142.0652036
2,1, 1, 1, 0, 2, 0.00, 5.00,Sunday
35,374795883.55648776
962,576374921.8404543
2,1, 1, 1, 0, 2, 5.00,10.00,Sunday
35,374273440.30789187
962,576255616.5950676
2,1, 1, 1, 0, 2,10.00,15.00,Sunday
35,373970074.73239228
962,575560127.8527465
2,1, 1, 1, 0, 2,15.00,20.00,Sunday
35,373826350.270107
962,575676571.1770099
2,1, 1, 1, 0, 2,20.00,25.00,Sunday
35,373658197.34423938
962,576028888.1809415
2,1, 1, 1, 0, 2,25.00,30.00,Sunday
35,373363215.1007906
962,576119928.0381966
2,1, 1, 1, 0, 2,30.00,35.00,Sunday
35,373365706.36791416
962,576639619.765157
2,1, 1, 1, 0, 2,35.00,40.00,Sunday
35,373194490.1604924
962,577152629.4749241
2,1, 1, 1, 0, 2,40.00,45.00,Sunday
35,373143966.2363876
962,577711760.7067397
2,1, 1, 1, 0, 2,45.00,50.00,Sunday
35,373153281.5794021
962,578845285.5306037
2,1, 1, 1, 0, 2,50.00,55.00,Sunday
35,373089101.4029757
962,579435768.603792
2,1, 1, 1, 0, 2,55.00,60.00,Sunday
35,373067390.1992046
962,580300652.622283
2,1, 1, 1, 0, 3, 0.00, 5.00,Sunday
35,372837948.45789167
962,581510544.6256085
2,1, 1, 1, 0, 3, 5.00,10.00,Sunday
35,372644922.4945769
962,582890371.5311977
2,1, 1, 1, 0, 3,10.00,15.00,Sunday
35,372449571.3401692
962,584008522.3257729
2,1, 1, 1, 0, 3,15.00,20.00,Sunday
35,372245616.72070339
962,585381988.8564456
2,1, 1, 1, 0, 3,20.00,25.00,Sunday
35,372038746.45164677
962,585535934.6290103
2,1, 1, 1, 0, 3,25.00,30.00,Sunday
35,371856927.7085626
962,587228432.6013883
2,1, 1, 1, 0, 3,30.00,35.00,Sunday
35,371662129.8042532
962,588810646.2034766
2,1, 1, 1, 0, 3,35.00,40.00,Sunday
35,371473100.66829356
962,589142086.0662356
2,1, 1, 1, 0, 3,40.00,45.00,Sunday
35,371236941.2980081
962,589053004.2594185
2,1, 1, 1, 0, 3,45.00,50.00,Sunday
35,371066051.73601177
962,590554062.0891959
2,1, 1, 1, 0, 3,50.00,55.00,Sunday
35,370834654.5077761
962,590916751.6393998
2,1, 1, 1, 0, 3,55.00,60.00,Sunday
35,370601208.0101166
962,591082894.0808045
2,1, 1, 1, 0, 4, 0.00, 5.00,Sunday
35,370654967.6181028
962,591552828.9767257
2,1, 1, 1, 0, 4, 5.00,10.00,Sunday
35,370658543.7465901
962,590905261.0289571
2,1, 1, 1, 0, 4,10.00,15.00,Sunday
35,370756366.4802328
962,591693637.6885082
2,1, 1, 1, 0, 4,15.00,20.00,Sunday
35,370774336.77774986
962,590933007.8044868
2,1, 1, 1, 0, 4,20.00,25.00,Sunday
35,370885265.5689808
962,592187261.8992683
2,1, 1, 1, 0, 4,25.00,30.00,Sunday
35,370909563.3186683
962,590926553.6112263
2,1, 1, 1, 0, 4,30.00,35.00,Sunday
35,370993293.6488072
962,591537133.3381703
2,1, 1, 1, 0, 4,35.00,40.00,Sunday
35,371081535.1787083
962,591784349.8575628
2,1, 1, 1, 0, 4,40.00,45.00,Sunday
35,371103631.9780406
962,591011359.6946409
2,1, 1, 1, 0, 4,45.00,50.00,Sunday
35,371185794.72337278
962,591503006.8231317
2,1, 1, 1, 0, 4,50.00,55.00,Sunday
35,371243808.1968238
962,591310475.0195503
2,1, 1, 1, 0, 4,55.00,60.00,Sunday
35,371288240.7737961
962,590943433.6600429
2,1, 1, 1, 0, 5, 0.00, 5.00,Sunday
35,375262240.68289026
962,592478310.3110783
2,1, 1, 1, 0, 5, 5.00,10.00,Sunday
35,375441144.34344008
962,592152824.587067
2,1, 1, 1, 0, 5,10.00,15.00,Sunday
35,375679431.6843332
962,592800115.7213692
2,1, 1, 1, 0, 5,15.00,20.00,Sunday
35,375882615.2207042
962,593429712.5806964
2,1, 1, 1, 0, 5,20.00,25.00,Sunday
35,376072984.611305
962,593547871.5737535
2,1, 1, 1, 0, 5,25.00,30.00,Sunday
35,376265787.61501589
962,593975579.4375759
2,1, 1, 1, 0, 5,30.00,35.00,Sunday
35,376429192.30553469
962,593945699.115278
2,1, 1, 1, 0, 5,35.00,40.00,Sunday
35,376638182.37993898
962,594621940.1555474
2,1, 1, 1, 0, 5,40.00,45.00,Sunday
35,376810377.8320923
962,595040159.7465211
2,1, 1, 1, 0, 5,45.00,50.00,Sunday
35,377006333.59754386
962,595665208.0204147
2,1, 1, 1, 0, 5,50.00,55.00,Sunday
35,377156584.67526558
962,594788580.3688897
2,1, 1, 1, 0, 5,55.00,60.00,Sunday
35,377374293.9314856
962,596398977.7159335
2,1, 1, 1, 0, 6, 0.00, 5.00,Sunday
35,384706753.4202167
962,595248266.1301046
2,1, 1, 1, 0, 6, 5.00,10.00,Sunday
35,384683352.81038048
962,594208171.5239525
2,1, 1, 1, 0, 6,10.00,15.00,Sunday
35,384739708.64583906
962,594219024.7238116
2,1, 1, 1, 0, 6,15.00,20.00,Sunday
35,384729542.22498956
962,592693204.4507109
2,1, 1, 1, 0, 6,20.00,25.00,Sunday
35,384800862.94120028
962,590361615.6547017
2,1, 1, 1, 0, 6,25.00,30.00,Sunday
35,384848177.2927198
962,588467134.2187888
2,1, 1, 1, 0, 6,30.00,35.00,Sunday
35,384833166.46732708
962,586106582.3173584
2,1, 1, 1, 0, 6,35.00,40.00,Sunday
35,384585017.8753857
962,583647343.4654718
2,1, 1, 1, 0, 6,40.00,45.00,Sunday
35,384394518.70512887
962,582693866.4992032
2,1, 1, 1, 0, 6,45.00,50.00,Sunday
35,383673534.2968021
962,579079143.2999452
2,1, 1, 1, 0, 6,50.00,55.00,Sunday
35,383671424.4682222
962,577333114.5943631
2,1, 1, 1, 0, 6,55.00,60.00,Sunday
35,383493998.77314826
962,575369674.8750844
2,1, 1, 1, 0, 7, 0.00, 5.00,Sunday
35,406187597.52134159
962,575132111.3857427
2,1, 1, 1, 0, 7, 5.00,10.00,Sunday
35,406310027.861808
962,574695711.095579
2,1, 1, 1, 0, 7,10.00,15.00,Sunday
35,406529301.7503431
962,575128180.9495624
2,1, 1, 1, 0, 7,15.00,20.00,Sunday
35,406702592.984838
962,574471959.6577977
2,1, 1, 1, 0, 7,20.00,25.00,Sunday
35,406910191.88063237
962,574769269.6812948
2,1, 1, 1, 0, 7,25.00,30.00,Sunday
35,406776261.9023085
962,573042415.4015514
2,1, 1, 1, 0, 7,30.00,35.00,Sunday
35,407169309.18030288
962,574731527.8335592
2,1, 1, 1, 0, 7,35.00,40.00,Sunday
35,407205462.7831814
962,573678361.7259959
2,1, 1, 1, 0, 7,40.00,45.00,Sunday
35,407157536.73949238
962,572259775.0568016
2,1, 1, 1, 0, 7,45.00,50.00,Sunday
35,407528397.4913276
962,573546671.8542998
2,1, 1, 1, 0, 7,50.00,55.00,Sunday
35,407548449.7250591
962,573191725.5298468
2,1, 1, 1, 0, 7,55.00,60.00,Sunday
35,407474729.1814675
962,571624860.4340404
2,1, 1, 1, 0, 8, 0.00, 5.00,Sunday
35,414888230.3933709
962,571507739.1265385
2,1, 1, 1, 0, 8, 5.00,10.00,Sunday
35,414414447.80112108
962,568149541.9521445
2,1, 1, 1, 0, 8,10.00,15.00,Sunday
35,395947069.464992
962,545436906.1228361
2,1, 1, 1, 0, 8,15.00,20.00,Sunday
35,397939165.23568448
962,522534867.3410864
2,1, 1, 1, 0, 8,20.00,25.00,Sunday
35,398098542.0467213
962,522370291.7719491
2,1, 1, 1, 0, 8,25.00,30.00,Sunday
35,397737223.64751419
962,520027181.2534009
2,1, 1, 1, 0, 8,30.00,35.00,Sunday
35,378866330.36396846
962,507011460.6348445
2,1, 1, 1, 0, 8,35.00,40.00,Sunday
35,378136978.390058
962,501485355.5373456
2,1, 1, 1, 0, 8,40.00,45.00,Sunday
35,376667462.25752046
962,492153308.51852616
2,1, 1, 1, 0, 8,45.00,50.00,Sunday
35,375740806.73797127
962,485494650.24412229
2,1, 1, 1, 0, 8,50.00,55.00,Sunday
35,374662988.24018219
962,477457485.8438425
2,1, 1, 1, 0, 8,55.00,60.00,Sunday
35,373571923.8928683
962,469904362.9195415
2,1, 1, 1, 0, 9, 0.00, 5.00,Sunday
35,373385988.42844167
962,465601087.8398266
2,1, 1, 1, 0, 9, 5.00,10.00,Sunday
35,373072047.7709045
962,462010479.3426
2,1, 1, 1, 0, 9,10.00,15.00,Sunday
35,372525194.21751287
962,456887860.27293828
2,1, 1, 1, 0, 9,15.00,20.00,Sunday
35,372462212.06774768
962,454596240.0858684
2,1, 1, 1, 0, 9,20.00,25.00,Sunday
35,371967614.8532081
962,449847883.6247276
2,1, 1, 1, 0, 9,25.00,30.00,Sunday
35,371933332.17388465
962,443015669.2308252
2,1, 1, 1, 0, 9,30.00,35.00,Sunday
35,371805284.21716049
962,440417459.236036
2,1, 1, 1, 0, 9,35.00,40.00,Sunday
35,371586894.402582
962,438431732.9209224
2,1, 1, 1, 0, 9,40.00,45.00,Sunday
35,370306262.10881558
962,435934707.2973354
2,1, 1, 1, 0, 9,45.00,50.00,Sunday
35,369089968.7856715
962,428164738.9478699
2,1, 1, 1, 0, 9,50.00,55.00,Sunday
35,369186512.08485707
962,427717668.4928784
2,1, 1, 1, 0, 9,55.00,60.00,Sunday
35,368949519.96592077
962,423723360.074685
2,1, 1, 1, 0,10, 0.00, 5.00,Sunday
35,357920167.34072336
962,422637226.1847014
2,1, 1, 1, 0,10, 5.00,10.00,Sunday
35,357676905.73286768
962,418220119.8329974
2,1, 1, 1, 0,10,10.00,15.00,Sunday
35,357721700.8708493
962,417226997.51285949
2,1, 1, 1, 0,10,15.00,20.00,Sunday
35,357506226.0019295
962,413092824.1684966
2,1, 1, 1, 0,10,20.00,25.00,Sunday
35,357505922.38147017
962,410841584.753982
2,1, 1, 1, 0,10,25.00,30.00,Sunday
35,357345457.43321517
962,408915248.5905364
2,1, 1, 1, 0,10,30.00,35.00,Sunday
35,357214972.87922057
962,405032612.4546679
2,1, 1, 1, 0,10,35.00,40.00,Sunday
35,357170511.38999786
962,401858159.6686092
2,1, 1, 1, 0,10,40.00,45.00,Sunday
35,357153482.76676288
962,398435341.5156799
2,1, 1, 1, 0,10,45.00,50.00,Sunday
35,357199402.96937808
962,396307802.01142409
2,1, 1, 1, 0,10,50.00,55.00,Sunday
35,359700223.18024817
962,392771089.9024696
2,1, 1, 1, 0,10,55.00,60.00,Sunday
35,359931543.4842995
962,388771334.0211369
2,1, 1, 1, 0,11, 0.00, 5.00,Sunday
35,345516894.5873528
962,385088878.9881792
2,1, 1, 1, 0,11, 5.00,10.00,Sunday
35,346447201.57680949
962,381963537.02348616
2,1, 1, 1, 0,11,10.00,15.00,Sunday
35,322625962.07357308
962,355074510.5514104
2,1, 1, 1, 0,11,15.00,20.00,Sunday
35,328203794.07580658
962,329621975.756241
2,1, 1, 1, 0,11,20.00,25.00,Sunday
35,329132627.0132253
962,330245936.26569488
2,1, 1, 1, 0,11,25.00,30.00,Sunday
35,325578038.67889568
962,322514791.2624905
2,1, 1, 1, 0,11,30.00,35.00,Sunday
35,326823857.3637202
962,312960971.2466316
2,1, 1, 1, 0,11,35.00,40.00,Sunday
35,327500386.27721777
962,310566341.8888192
2,1, 1, 1, 0,11,40.00,45.00,Sunday
35,328209954.1426879
962,307837499.88881358
2,1, 1, 1, 0,11,45.00,50.00,Sunday
35,328966249.93397679
962,306901626.83049657
2,1, 1, 1, 0,11,50.00,55.00,Sunday
35,329650467.9363143
962,305262840.2886431
2,1, 1, 1, 0,11,55.00,60.00,Sunday
35,330388698.7218569
962,304910928.4265807
2,1, 1, 1, 0,12, 0.00, 5.00,Sunday
35,330997366.9546413
962,303998071.571635
2,1, 1, 1, 0,12, 5.00,10.00,Sunday
35,331657495.7926471
962,316018963.95949199
2,1, 1, 1, 0,12,10.00,15.00,Sunday
35,332270377.9219715
962,302794687.20889237
2,1, 1, 1, 0,12,15.00,20.00,Sunday
35,332855303.4253691
962,301644537.67248
2,1, 1, 1, 0,12,20.00,25.00,Sunday
35,333474478.7033116
962,301301207.9087251
2,1, 1, 1, 0,12,25.00,30.00,Sunday
35,334002417.1158971
962,298951925.0814454
2,1, 1, 1, 0,12,30.00,35.00,Sunday
35,334555443.632835
962,299569443.5313477
2,1, 1, 1, 0,12,35.00,40.00,Sunday
35,335150782.1623194
962,297844459.9630647
2,1, 1, 1, 0,12,40.00,45.00,Sunday
35,335670389.9611138
962,297109425.2418886
2,1, 1, 1, 0,12,45.00,50.00,Sunday
35,336213745.2778971
962,296431441.1165801
2,1, 1, 1, 0,12,50.00,55.00,Sunday
35,336759787.2436526
962,307697638.1974988
2,1, 1, 1, 0,12,55.00,60.00,Sunday
35,335647024.5171336
962,291912125.14536967
2,1, 1, 1, 0,13, 0.00, 5.00,Sunday
35,336478240.7389299
962,289836148.2240365
2,1, 1, 1, 0,13, 5.00,10.00,Sunday
35,337181865.57432886
962,288506537.73962888
2,1, 1, 1, 0,13,10.00,15.00,Sunday
35,337787165.5019299
962,286963236.7922974
2,1, 1, 1, 0,13,15.00,20.00,Sunday
35,338425561.7582974
962,285395658.9714092
2,1, 1, 1, 0,13,20.00,25.00,Sunday
35,339164097.4744544
962,282649111.17356166
2,1, 1, 1, 0,13,25.00,30.00,Sunday
35,340240539.69952276
962,282840313.16916987
2,1, 1, 1, 0,13,30.00,35.00,Sunday
35,341120000.1869312
962,281085196.1454465
2,1, 1, 1, 0,13,35.00,40.00,Sunday
35,341717093.17819258
962,292670172.2575098
2,1, 1, 1, 0,13,40.00,45.00,Sunday
35,342229950.131517
962,278697386.5350356
2,1, 1, 1, 0,13,45.00,50.00,Sunday
35,342694330.77491876
962,277409800.95661059
2,1, 1, 1, 0,13,50.00,55.00,Sunday
35,343031857.2919407
962,275785773.5657503
2,1, 1, 1, 0,13,55.00,60.00,Sunday
35,343582874.90732088
962,273315767.1523129
2,1, 1, 1, 0,14, 0.00, 5.00,Sunday
35,343183795.1067962
962,273106457.6151814
2,1, 1, 1, 0,14, 5.00,10.00,Sunday
35,343047852.53881457
962,270988002.678595
2,1, 1, 1, 0,14,10.00,15.00,Sunday
35,342817146.1133825
962,277885727.038396
2,1, 1, 1, 0,14,15.00,20.00,Sunday
35,342541139.2351223
962,273081473.05434307
2,1, 1, 1, 0,14,20.00,25.00,Sunday
35,342341454.2476074
962,266665698.3674591
2,1, 1, 1, 0,14,25.00,30.00,Sunday
35,342006894.5514992
962,264933144.2756996
2,1, 1, 1, 0,14,30.00,35.00,Sunday
35,341727214.6925584
962,263382812.13479737
2,1, 1, 1, 0,14,35.00,40.00,Sunday
35,341383533.75743827
962,261670334.35264723
2,1, 1, 1, 0,14,40.00,45.00,Sunday
35,341027422.44898518
962,272822552.8814503
2,1, 1, 1, 0,14,45.00,50.00,Sunday
35,340903019.4913286
962,258300319.40461917
2,1, 1, 1, 0,14,50.00,55.00,Sunday
35,340830332.38924887
962,256809242.65669386
2,1, 1, 1, 0,14,55.00,60.00,Sunday
35,340749814.99716296
962,255385446.99718783
2,1, 1, 1, 0,15, 0.00, 5.00,Sunday
35,340564947.26399818
962,253581590.74437613
2,1, 1, 1, 0,15, 5.00,10.00,Sunday
35,340353527.31734576
962,251670516.64992807
2,1, 1, 1, 0,15,10.00,15.00,Sunday
35,340373262.2236721
962,257358261.96713323
2,1, 1, 1, 0,15,15.00,20.00,Sunday
35,340035587.58379557
962,253623210.64991714
2,1, 1, 1, 0,15,20.00,25.00,Sunday
35,339819336.86575147
962,246425036.65654177
2,1, 1, 1, 0,15,25.00,30.00,Sunday
35,339564832.5933624
962,244599978.27388329
2,1, 1, 1, 0,15,30.00,35.00,Sunday
35,339170430.6211506
962,242769031.03291647
2,1, 1, 1, 0,15,35.00,40.00,Sunday
35,338584672.24063566
962,241918223.09845028
2,1, 1, 1, 0,15,40.00,45.00,Sunday
35,338123727.90615686
962,240173021.60128949
2,1, 1, 1, 0,15,45.00,50.00,Sunday
35,337619781.5839072
962,238667842.30363266
2,1, 1, 1, 0,15,50.00,55.00,Sunday
35,337023222.4205556
962,238104078.8149887
2,1, 1, 1, 0,15,55.00,60.00,Sunday
35,336603568.94500407
962,236866899.93744929
2,1, 1, 1, 0,16, 0.00, 5.00,Sunday
35,335937505.5254311
962,248937591.39536349
2,1, 1, 1, 0,16, 5.00,10.00,Sunday
35,335167757.01890376
962,237058721.6643534
2,1, 1, 1, 0,16,10.00,15.00,Sunday
35,334516667.82404729
962,236635790.14121289
2,1, 1, 1, 0,16,15.00,20.00,Sunday
35,333938304.39999547
962,237291423.4450249
2,1, 1, 1, 0,16,20.00,25.00,Sunday
35,333264021.67142727
962,237515097.55331344
2,1, 1, 1, 0,16,25.00,30.00,Sunday
35,332705577.19087538
962,237258023.70715527
2,1, 1, 1, 0,16,30.00,35.00,Sunday
35,331795029.7378944
962,237935708.23326267
2,1, 1, 1, 0,16,35.00,40.00,Sunday
35,330953718.5743248
962,238042318.6698197
2,1, 1, 1, 0,16,40.00,45.00,Sunday
35,329974145.6019726
962,239167189.79470773
2,1, 1, 1, 0,16,45.00,50.00,Sunday
35,329033227.95175829
962,240200399.93773673
2,1, 1, 1, 0,16,50.00,55.00,Sunday
35,328130922.62081935
962,241222428.33034868
2,1, 1, 1, 0,16,55.00,60.00,Sunday
35,327279418.29392108
962,242223297.10852013
2,1, 1, 1, 0,17, 0.00, 5.00,Sunday
35,341124027.45406529
962,242432999.72325123
2,1, 1, 1, 0,17, 5.00,10.00,Sunday
35,340299453.2353104
962,241865292.50283677
2,1, 1, 1, 0,17,10.00,15.00,Sunday
35,339560977.7610985
962,242113425.58454973
2,1, 1, 1, 0,17,15.00,20.00,Sunday
35,338789663.50395926
962,242266721.76475583
2,1, 1, 1, 0,17,20.00,25.00,Sunday
35,337951475.0938827
962,242552495.45385156
2,1, 1, 1, 0,17,25.00,30.00,Sunday
35,337219913.7184465
962,244863954.6567517
2,1, 1, 1, 0,17,30.00,35.00,Sunday
35,336858495.9600522
962,255970133.71288545
2,1, 1, 1, 0,17,35.00,40.00,Sunday
35,336557778.73554447
962,245958974.35922129
2,1, 1, 1, 0,17,40.00,45.00,Sunday
35,336259524.72660896
962,247842070.3378948
2,1, 1, 1, 0,17,45.00,50.00,Sunday
35,352702172.7004755
962,254797614.96017773
2,1, 1, 1, 0,17,50.00,55.00,Sunday
35,352160331.41757026
962,260394714.27826215
2,1, 1, 1, 0,17,55.00,60.00,Sunday
35,351672627.1182504
962,261280737.97755269
2,1, 1, 1, 0,18, 0.00, 5.00,Sunday
35,362549648.0655913
962,263569519.31988696
2,1, 1, 1, 0,18, 5.00,10.00,Sunday
35,362396442.0742255
962,266133466.30189965
2,1, 1, 1, 0,18,10.00,15.00,Sunday
35,362089246.136791
962,266293321.50281105
2,1, 1, 1, 0,18,15.00,20.00,Sunday
35,362025213.9179013
962,269059826.43050536
2,1, 1, 1, 0,18,20.00,25.00,Sunday
35,361763420.3425926
962,269864545.7588327
2,1, 1, 1, 0,18,25.00,30.00,Sunday
35,361545561.1570185
962,270015583.91564878
2,1, 1, 1, 0,18,30.00,35.00,Sunday
35,361469990.7726483
962,272422452.4378702
2,1, 1, 1, 0,18,35.00,40.00,Sunday
35,361264162.9644532
962,272896142.2633933
2,1, 1, 1, 0,18,40.00,45.00,Sunday
35,361049187.51281848
962,272615956.72524139
2,1, 1, 1, 0,18,45.00,50.00,Sunday
35,360988870.4495122
962,274784331.2043155
2,1, 1, 1, 0,18,50.00,55.00,Sunday
35,360804701.70323708
962,275130351.6711874
2,1, 1, 1, 0,18,55.00,60.00,Sunday
35,360680024.9154704
962,278965920.1866636
2,1, 1, 1, 0,19, 0.00, 5.00,Sunday
35,360457548.9238328
962,285909091.04635038
2,1, 1, 1, 0,19, 5.00,10.00,Sunday
35,360221164.75702539
962,276654703.60199698
2,1, 1, 1, 0,19,10.00,15.00,Sunday
35,359997070.25727227
962,276326194.82238098
2,1, 1, 1, 0,19,15.00,20.00,Sunday
35,359774537.91283759
962,275989337.7739014
2,1, 1, 1, 0,19,20.00,25.00,Sunday
35,359554102.28788426
962,275691812.3123553
2,1, 1, 1, 0,19,25.00,30.00,Sunday
35,359407694.78538367
962,276522550.34928616
2,1, 1, 1, 0,19,30.00,35.00,Sunday
35,359107142.0671799
962,274870601.20971336
2,1, 1, 1, 0,19,35.00,40.00,Sunday
35,358940038.11243656
962,274962725.32450637
2,1, 1, 1, 0,19,40.00,45.00,Sunday
35,358742457.1077412
962,274474740.08243289
2,1, 1, 1, 0,19,45.00,50.00,Sunday
35,358606805.5893146
962,275130540.1336406
2,1, 1, 1, 0,19,50.00,55.00,Sunday
35,358313817.009802
962,273463628.6308029
2,1, 1, 1, 0,19,55.00,60.00,Sunday
35,358250744.0825009
962,274785380.3007976
2,1, 1, 1, 0,20, 0.00, 5.00,Sunday
35,350813290.74736008
962,274012051.06383648
2,1, 1, 1, 0,20, 5.00,10.00,Sunday
35,350989042.2408577
962,276691954.83135136
2,1, 1, 1, 0,20,10.00,15.00,Sunday
35,350969494.0752532
962,277395095.3696132
2,1, 1, 1, 0,20,15.00,20.00,Sunday
35,350939747.69834306
962,277588767.0138692
2,1, 1, 1, 0,20,20.00,25.00,Sunday
35,351060520.7212116
962,280353333.1858866
2,1, 1, 1, 0,20,25.00,30.00,Sunday
35,351041790.9505495
962,289945499.2693145
2,1, 1, 1, 0,20,30.00,35.00,Sunday
35,351059948.3654921
962,285874205.7842668
2,1, 1, 1, 0,20,35.00,40.00,Sunday
35,351015883.93518838
962,282359570.4895769
2,1, 1, 1, 0,20,40.00,45.00,Sunday
35,351151416.64066419
962,285157543.1011647
2,1, 1, 1, 0,20,45.00,50.00,Sunday
35,351113664.5544988
962,285731882.06549456
2,1, 1, 1, 0,20,50.00,55.00,Sunday
35,351147712.88596096
962,287169472.06899347
2,1, 1, 1, 0,20,55.00,60.00,Sunday
35,351162362.0847434
962,288751255.14772608
2,1, 1, 1, 0,21, 0.00, 5.00,Sunday
35,350884978.95110258
962,288949468.03622469
2,1, 1, 1, 0,21, 5.00,10.00,Sunday
35,350588053.7881156
962,289177266.4232086
2,1, 1, 1, 0,21,10.00,15.00,Sunday
35,350395221.00293847
962,290890762.67605516
2,1, 1, 1, 0,21,15.00,20.00,Sunday
35,350043524.995956
962,289628051.856095
2,1, 1, 1, 0,21,20.00,25.00,Sunday
35,349863420.34585067
962,290746589.1196106
2,1, 1, 1, 0,21,25.00,30.00,Sunday
35,349591982.4336122
962,290943698.94587919
2,1, 1, 1, 0,21,30.00,35.00,Sunday
35,349343912.65310367
962,291038389.10249438
2,1, 1, 1, 0,21,35.00,40.00,Sunday
35,349175318.03843566
962,292684051.7449019
2,1, 1, 1, 0,21,40.00,45.00,Sunday
35,348849816.435666
962,291525191.45338979
2,1, 1, 1, 0,21,45.00,50.00,Sunday
35,348724705.157365
962,293741633.21713796
2,1, 1, 1, 0,21,50.00,55.00,Sunday
35,348365876.01286479
962,292394357.27339956
2,1, 1, 1, 0,21,55.00,60.00,Sunday
35,348259127.29002049
962,303199027.01751998
2,1, 1, 1, 0,22, 0.00, 5.00,Sunday
35,340766593.36496749
962,298185001.604068
2,1, 1, 1, 0,22, 5.00,10.00,Sunday
35,340874389.33587887
962,297531959.68249997
2,1, 1, 1, 0,22,10.00,15.00,Sunday
35,340738973.55370137
962,296882136.63227596
2,1, 1, 1, 0,22,15.00,20.00,Sunday
35,340809691.0281908
962,299940195.9355372
2,1, 1, 1, 0,22,20.00,25.00,Sunday
35,340744893.68729308
962,301059613.35647037
2,1, 1, 1, 0,22,25.00,30.00,Sunday
35,340656986.9380836
962,301112641.32754489
2,1, 1, 1, 0,22,30.00,35.00,Sunday
35,340733049.4770764
962,304441055.2685122
2,1, 1, 1, 0,22,35.00,40.00,Sunday
35,340641619.9552336
962,317784141.4060347
2,1, 1, 1, 0,22,40.00,45.00,Sunday
35,340564981.4390649
962,305423842.95802876
2,1, 1, 1, 0,22,45.00,50.00,Sunday
35,340618112.47713968
962,308411319.56442287
2,1, 1, 1, 0,22,50.00,55.00,Sunday
35,340542047.6946481
962,309485289.9258166
2,1, 1, 1, 0,22,55.00,60.00,Sunday
35,340520048.42239406
962,311178498.7649009
2,1, 1, 1, 0,23, 0.00, 5.00,Sunday
35,333004861.6492216
962,312250232.75175449
2,1, 1, 1, 0,23, 5.00,10.00,Sunday
35,332947932.0854359
962,313405414.347489
2,1, 1, 1, 0,23,10.00,15.00,Sunday
35,332773957.00460419
962,314510720.0042286
2,1, 1, 1, 0,23,15.00,20.00,Sunday
35,332685969.1540547
962,315568348.293056
2,1, 1, 1, 0,23,20.00,25.00,Sunday
35,332497080.3348608
962,315149193.49101826
2,1, 1, 1, 0,23,25.00,30.00,Sunday
35,332511908.6312043
962,317929626.54074278
2,1, 1, 1, 0,23,30.00,35.00,Sunday
35,332311398.91613528
962,327604338.4126107
2,1, 1, 1, 0,23,35.00,40.00,Sunday
35,332238285.3658681
962,322356039.03171828
2,1, 1, 1, 0,23,40.00,45.00,Sunday
35,332126112.1360426
962,321638592.4757798
2,1, 1, 1, 0,23,45.00,50.00,Sunday
35,331999637.6590425
962,321059253.6150972
2,1, 1, 1, 0,23,50.00,55.00,Sunday
35,331899085.08857056
962,322982258.67374727
2,1, 1, 1, 0,23,55.00,60.00,Sunday
35,331805557.91932687
962,323794629.5976136
2,1, 1, 1, 0,24, 0.00, 5.00,Sunday
35,324433651.74590608
962,325980888.5374907
2,1, 1, 1, 0,24, 5.00,10.00,Sunday
35,324451955.4198608
962,327968039.7837127
2,1, 1, 1, 0,24,10.00,15.00,Sunday
35,324409679.5291363
962,329654786.36112478
2,1, 1, 1, 0,24,15.00,20.00,Sunday
35,324440111.77976116
962,332135789.2999533
2,1, 1, 1, 0,24,20.00,25.00,Sunday
35,324385538.43042287
962,333735859.4586545
2,1, 1, 1, 0,24,25.00,30.00,Sunday
35,324460953.2889086
962,336755731.54689058
2,1, 1, 1, 0,24,30.00,35.00,Sunday
35,324504376.47698387
962,340406175.7413876
2,1, 1, 1, 0,24,35.00,40.00,Sunday
35,324454033.9660119
962,340479469.0108271
2,1, 1, 1, 0,24,40.00,45.00,Sunday
35,324462064.06178018
962,343641835.5935954
2,1, 1, 1, 0,24,45.00,50.00,Sunday
35,324437802.30378267
962,345505197.59294518
2,1, 1, 1, 0,24,50.00,55.00,Sunday
35,324469908.96764937
962,347732770.00660327
2,1, 1, 1, 0,24,55.00,60.00,Sunday
35,326098087.18425306
962,352882153.9856236
3,1, 1, 1, 0,Sunday
37,102563559830.18758,322625962.07357308,11,15,414888230.3933709, 8, 5
964,113441901811.7722,236635790.14121289,16,15,599809574.1514114, 1,15
2,2, 1, 2, 0, 1, 0.00, 5.00,Monday
35,324847085.9043973
962,348884148.023602
2,2, 1, 2, 0, 1, 5.00,10.00,Monday
35,325103611.0098206
962,350594528.4051427
2,2, 1, 2, 0, 1,10.00,15.00,Monday
35,325196753.17397859
962,350327767.4112326
2,2, 1, 2, 0, 1,15.00,20.00,Monday
35,325332002.89439108
962,350764052.7823867
2,2, 1, 2, 0, 1,20.00,25.00,Monday
35,325474644.9379347
962,350512172.3057504
2,2, 1, 2, 0, 1,25.00,30.00,Monday
35,325725424.3822818
962,352118791.12133619
2,2, 1, 2, 0, 1,30.00,35.00,Monday
35,325760569.2176128
962,350764757.63588508
2,2, 1, 2, 0, 1,35.00,40.00,Monday
35,325980301.0593001
962,351881126.1742278
2,2, 1, 2, 0, 1,40.00,45.00,Monday
35,326037557.82319727
962,351655802.9323439
2,2, 1, 2, 0, 1,45.00,50.00,Monday
35,326199921.0659834
962,351770774.71320709
2,2, 1, 2, 0, 1,50.00,55.00,Monday
35,326292775.0023032
962,352104737.84808018
2,2, 1, 2, 0, 1,55.00,60.00,Monday
35,326421648.05316326
962,352122929.7387314
2,2, 1, 2, 0, 2, 0.00, 5.00,Monday
35,326769413.5009931
962,355597139.9206935
2,2, 1, 2, 0, 2, 5.00,10.00,Monday
35,326662518.02984657
962,354578462.0090231
2,2, 1, 2, 0, 2,10.00,15.00,Monday
35,326930516.1916969
962,356674924.03893038
2,2, 1, 2, 0, 2,15.00,20.00,Monday
35,327023396.3091866
962,357778078.1253408
2,2, 1, 2, 0, 2,20.00,25.00,Monday
35,327168338.0455618
962,359061083.4401553
2,2, 1, 2, 0, 2,25.00,30.00,Monday
35,327275691.4545428
962,360294394.7658308
2,2, 1, 2, 0, 2,30.00,35.00,Monday
35,327412321.4567107
962,361536234.19803157
2,2, 1, 2, 0, 2,35.00,40.00,Monday
35,327541553.4150911
962,362847764.8512862
2,2, 1, 2, 0, 2,40.00,45.00,Monday
35,327628103.44903287
962,363959759.5151193
2,2, 1, 2, 0, 2,45.00,50.00,Monday
35,327823266.20552697
962,365438220.849045
2,2, 1, 2, 0, 2,50.00,55.00,Monday
35,327885047.7592123
962,366626697.63189056
2,2, 1, 2, 0, 2,55.00,60.00,Monday
35,328035236.48887088
962,367966735.57503297
2,2, 1, 2, 0, 3, 0.00, 5.00,Monday
35,328066615.549232
962,368722239.1143631
2,2, 1, 2, 0, 3, 5.00,10.00,Monday
35,328074749.5634568
962,370109274.99339619
2,2, 1, 2, 0, 3,10.00,15.00,Monday
35,327838866.3342617
962,368670914.43091037
2,2, 1, 2, 0, 3,15.00,20.00,Monday
35,328137313.05307528
962,372010108.1768569
2,2, 1, 2, 0, 3,20.00,25.00,Monday
35,328015380.0154364
962,372085561.07585319
2,2, 1, 2, 0, 3,25.00,30.00,Monday
35,328091529.37278726
962,373239770.89761206
2,2, 1, 2, 0, 3,30.00,35.00,Monday
35,328061104.1990773
962,374028727.1542759
2,2, 1, 2, 0, 3,35.00,40.00,Monday
35,327905157.85358849
962,373272495.4384557
2,2, 1, 2, 0, 3,40.00,45.00,Monday
35,328222838.121696
962,376239378.554804
2,2, 1, 2, 0, 3,45.00,50.00,Monday
35,328054422.5899688
962,376214153.18434169
2,2, 1, 2, 0, 3,50.00,55.00,Monday
35,327859516.2135108
962,375399646.4297998
2,2, 1, 2, 0, 3,55.00,60.00,Monday
35,329335668.2441345
962,379168819.87180235
2,2, 1, 2, 0, 4, 0.00, 5.00,Monday
35,329376549.3733806
962,381058589.2489654
2,2, 1, 2, 0, 4, 5.00,10.00,Monday
35,329667970.5670764
962,383802062.4858101
2,2, 1, 2, 0, 4,10.00,15.00,Monday
35,329223543.1791141
962,382368908.90376648
2,2, 1, 2, 0, 4,15.00,20.00,Monday
35,329530848.2328717
962,386421344.2247673
2,2, 1, 2, 0, 4,20.00,25.00,Monday
35,329090939.8468511
962,384794461.0404546
2,2, 1, 2, 0, 4,25.00,30.00,Monday
35,329422867.86495688
962,389105668.73129746
2,2, 1, 2, 0, 4,30.00,35.00,Monday
35,328987183.67011889
962,387327678.9771558
2,2, 1, 2, 0, 4,35.00,40.00,Monday
35,329109251.4555129
962,389750868.5571768
2,2, 1, 2, 0, 4,40.00,45.00,Monday
35,329160784.1278993
962,392191436.89533618
2,2, 1, 2, 0, 4,45.00,50.00,Monday
35,328860923.6454017
962,390870476.07867118
2,2, 1, 2, 0, 4,50.00,55.00,Monday
35,328873819.0649055
962,392704479.2584912
2,2, 1, 2, 0, 4,55.00,60.00,Monday
35,328832025.65717878
962,393796110.15443518
2,2, 1, 2, 0, 5, 0.00, 5.00,Monday
35,333026098.79288318
962,395410897.88783517
2,2, 1, 2, 0, 5, 5.00,10.00,Monday
35,333154612.4937419
962,396989616.0703646
2,2, 1, 2, 0, 5,10.00,15.00,Monday
35,333614957.8086295
962,399667437.12158706
2,2, 1, 2, 0, 5,15.00,20.00,Monday
35,333362342.8699212
962,398314926.0620398
2,2, 1, 2, 0, 5,20.00,25.00,Monday
35,333361231.3882873
962,397404147.50244387
2,2, 1, 2, 0, 5,25.00,30.00,Monday
35,333646055.29867717
962,400263162.5814628
2,2, 1, 2, 0, 5,30.00,35.00,Monday
35,333584833.7882042
962,399969990.2047815
2,2, 1, 2, 0, 5,35.00,40.00,Monday
35,333710232.58142778
962,400611219.44239339
2,2, 1, 2, 0, 5,40.00,45.00,Monday
35,333786668.1009553
962,401127035.4172854
2,2, 1, 2, 0, 5,45.00,50.00,Monday
35,333749288.84518679
962,401499747.3838309
2,2, 1, 2, 0, 5,50.00,55.00,Monday
35,333657953.9589244
962,400199817.1903287
2,2, 1, 2, 0, 5,55.00,60.00,Monday
35,334005011.42949429
962,402808068.12789699
2,2, 1, 2, 0, 6, 0.00, 5.00,Monday
35,347999500.0562659
962,400391326.85073247
2,2, 1, 2, 0, 6, 5.00,10.00,Monday
35,348683565.37411668
962,404646462.0343301
2,2, 1, 2, 0, 6,10.00,15.00,Monday
35,348784636.0778669
962,404979854.5419625
2,2, 1, 2, 0, 6,15.00,20.00,Monday
35,348920674.7159171
962,404810904.6347312
2,2, 1, 2, 0, 6,20.00,25.00,Monday
35,349358352.4268019
962,406601900.74910238
2,2, 1, 2, 0, 6,25.00,30.00,Monday
35,349701736.9707652
962,409012118.5743858
2,2, 1, 2, 0, 6,30.00,35.00,Monday
35,349762696.53053858
962,408059898.1166471
2,2, 1, 2, 0, 6,35.00,40.00,Monday
35,350111706.21321997
962,409258991.28684046
2,2, 1, 2, 0, 6,40.00,45.00,Monday
35,350597598.9493693
962,412763212.98076179
2,2, 1, 2, 0, 6,45.00,50.00,Monday
35,350521464.65152326
962,410996295.40549877
2,2, 1, 2, 0, 6,50.00,55.00,Monday
35,350842186.613204
962,412864750.11483386
2,2, 1, 2, 0, 6,55.00,60.00,Monday
35,351067536.7958848
962,413206183.1024575
2,2, 1, 2, 0, 7, 0.00, 5.00,Monday
35,373959276.2509167
962,380997188.919845
2,2, 1, 2, 0, 7, 5.00,10.00,Monday
35,373412640.7295904
962,382823419.3854416
2,2, 1, 2, 0, 7,10.00,15.00,Monday
35,373077019.9583075
962,383047522.5715164
2,2, 1, 2, 0, 7,15.00,20.00,Monday
35,372737262.2187577
962,382489126.80029699
2,2, 1, 2, 0, 7,20.00,25.00,Monday
35,372432896.4848073
962,382083777.228264
2,2, 1, 2, 0, 7,25.00,30.00,Monday
35,372087434.4533053
962,379585491.54734519
2,2, 1, 2, 0, 7,30.00,35.00,Monday
35,372291057.14024826
962,381390760.41041538
2,2, 1, 2, 0, 7,35.00,40.00,Monday
35,372036014.8864025
962,379689140.72397896